 -0.12000000000000000          0.0000000000000000     
  -6.9999999999999993E-002     2.5606220543701661E-018
  -1.9999999999999990E-002     7.4658690352832070E-018
   3.0000000000000027E-002     1.4374103964643029E-017
   8.0000000000000016E-002     2.2836404442398161E-017
  0.13000000000000000          3.2318876394887044E-017
  0.18000000000000005          4.2227709249821373E-017
  0.23000000000000004          5.1935994564424263E-017
  0.28000000000000003          6.0811534892943579E-017
  0.33000000000000002          6.8244965168572001E-017
  0.38000000000000000          7.3677311201028464E-017
  0.43000000000000005          7.6625978735173159E-017
  0.48000000000000009          7.6707960976634530E-017
  0.53000000000000003          7.3659089308924531E-017
  0.58000000000000007          6.7348217821100926E-017
  0.63000000000000000          5.7785540854317539E-017
  0.68000000000000005          4.5124799335808175E-017
  0.73000000000000009          2.9659396846060337E-017
  0.78000000000000003          1.1812998284979726E-017
  0.83000000000000007         -7.8748557629436444E-018
  0.88000000000000000         -2.8767741591535761E-017
  0.93000000000000005         -5.0155693960227632E-017
  0.98000000000000009         -7.1282598841820830E-017
   1.0300000000000002         -9.1376711038989587E-017
   1.0800000000000001         -1.0968289638484326E-016
   1.1299999999999999         -1.2549454195483873E-016
   1.1800000000000002         -1.3818344509206606E-016
   1.2300000000000000         -1.4722607727446644E-016
   1.2800000000000002         -1.5222552341542173E-016
   1.3300000000000001         -1.5292847500142432E-016
   1.3799999999999999         -1.4923661760658532E-016
   1.4300000000000002         -1.4121187912293014E-016
   1.4800000000000000         -1.2907489640300500E-016
   1.5300000000000002         -1.1319676727314435E-016
   1.5800000000000001         -9.4084685473720427E-017
   1.6299999999999999         -7.2362544843111335E-017
   1.6800000000000002         -4.8747272520365740E-017
   1.7300000000000000         -2.4021582320896828E-017
   1.7800000000000002          9.9625836750516037E-019
   1.8300000000000001          2.5484805828988257E-017
   1.8799999999999999          4.8651882647541955E-017
   1.9300000000000002          6.9765261304445097E-017
   1.9800000000000000          8.8178859975741436E-017
   2.0299999999999998          1.0335364421942051E-016
   2.0800000000000001          1.1487282727083166E-016
   2.1299999999999999          1.2245242269307199E-016
   2.1800000000000002          1.2594827062036041E-016
   2.2300000000000000          1.2535991149642870E-016
   2.2800000000000002          1.2083062772425059E-016
   2.3300000000000001          1.1264230425772451E-016
   2.3799999999999999          1.0120363515542003E-016
   2.4300000000000002          8.7031178226286749E-017
   2.4800000000000000          7.0724333667093655E-017
   2.5300000000000002          5.2936921057351529E-017
   2.5800000000000001          3.4348788083659968E-017
   2.6299999999999999          1.5639950304728761E-017
   2.6800000000000002         -2.5317614883749237E-018
   2.7300000000000000         -1.9550756145793599E-017
   2.7800000000000002         -3.4863708027172434E-017
   2.8300000000000001         -4.8001601135305737E-017
   2.8799999999999999         -5.8603471235549396E-017
   2.9300000000000002         -6.6438615483826886E-017
   2.9800000000000000         -7.1422920921746252E-017
   3.0300000000000002         -7.3625290916768400E-017
   3.0800000000000001         -7.3262290559929441E-017
   3.1299999999999999         -7.0682932005054652E-017
   3.1800000000000002         -6.6347691404548210E-017
   3.2300000000000000         -6.0806135123463402E-017
   3.2800000000000002         -5.4675636079312291E-017
   3.3300000000000001         -4.8620441582255575E-017
   3.3799999999999999         -4.3327922234929138E-017
   3.4300000000000002         -3.9478379490795831E-017
   3.4800000000000000         -3.7706818885729984E-017
   3.5300000000000002         -3.8558832702136133E-017
   3.5800000000000001         -4.2446396548026017E-017
   3.6299999999999999         -4.9610870900992501E-017
   3.6800000000000002         -6.0099048671450609E-017
   3.7300000000000000         -7.3754406390997212E-017
   3.7800000000000002         -9.0220976428379137E-017
   3.8300000000000001         -1.0895470044778527E-016
   3.8799999999999999         -1.2923740401899336E-016
   3.9299999999999997         -1.5019268272732555E-016
   3.9800000000000004         -1.7080616283504018E-016
   4.0300000000000002         -1.8995605091245727E-016
   4.0800000000000001         -2.0645754255662301E-016
   4.1299999999999999         -2.1912128605563080E-016
   4.1799999999999997         -2.2682012512102323E-016
   4.2300000000000004         -2.2855602443378368E-016
   4.2800000000000002         -2.2351946460874237E-016
   4.3300000000000001         -2.1113702120731958E-016
   4.3799999999999999         -1.9110652889144576E-016
   4.4299999999999997         -1.6342195348427678E-016
   4.4800000000000004         -1.2838988499070980E-016
   4.5300000000000002         -8.6638458838908613E-017
   4.5800000000000001         -3.9117350907536663E-017
   4.6299999999999999          1.2913412943093826E-017
   4.6800000000000006          6.7908366011609934E-017
   4.7300000000000004          1.2407698543691405E-016
   4.7800000000000002          1.7943952406109519E-016
   4.8300000000000001          2.3189603820211776E-016
   4.8799999999999999          2.7930391467937913E-016
   4.9300000000000006          3.1955801496333687E-016
   4.9800000000000004          3.5066746107905483E-016
   5.0300000000000002          3.7082668689530277E-016
   5.0800000000000001          3.7848100914868848E-016
   5.1299999999999999          3.7238859881229662E-016
   5.1800000000000006          3.5167979017124747E-016
   5.2300000000000004          3.1591147239576955E-016
   5.2800000000000002          2.6511100398510002E-016
   5.3300000000000001          1.9980409059254445E-016
   5.3799999999999999          1.2102351046309818E-016
   5.4300000000000006          3.0299625688495008E-017
   5.4800000000000004         -7.0364285986161665E-017
   5.5300000000000002         -1.7852981341476084E-016
   5.5800000000000001         -2.9137445461965518E-016
   5.6299999999999999         -4.0575782440751449E-016
   5.6800000000000006         -5.1830451084126132E-016
   5.7300000000000004         -6.2550043308006316E-016
   5.7800000000000002         -7.2379863505311272E-016
   5.8300000000000001         -8.0972838417275799E-016
   5.8799999999999999         -8.8000526426649991E-016
   5.9300000000000006         -9.3164200198229043E-016
   5.9800000000000004         -9.6206120837689687E-016
   6.0300000000000002         -9.6920658129923818E-016
   6.0800000000000001         -9.5164609745106805E-016
   6.1299999999999999         -9.0865872561980574E-016
   6.1800000000000006         -8.4029801984467480E-016
   6.2300000000000004         -7.4743033402701900E-016
   6.2800000000000002         -6.3174823583395070E-016
   6.3300000000000001         -4.9576033852850416E-016
   6.3799999999999999         -3.4275550306189585E-016
   6.4300000000000006         -1.7673801471099829E-016
   6.4800000000000004         -2.3308095037478018E-018
   6.5300000000000002          1.7535028479879178E-016
   6.5800000000000001          3.5084533269569482E-016
   6.6299999999999999          5.1851498317651992E-016
   6.6800000000000006          6.7271558546965073E-016
   6.7300000000000004          8.0798190505799214E-016
   6.7800000000000002          9.1921701778019069E-016
   6.8300000000000001          1.0018808890191138E-015
   6.8799999999999999          1.0521684247207326E-015
   6.9300000000000006          1.0671647043455990E-015
   6.9800000000000004          1.0449669991563316E-015
   7.0300000000000002          9.8477337492115770E-016
   7.0800000000000001          8.8693739821328985E-016
   7.1299999999999999          7.5299244514823366E-016
   7.1800000000000006          5.8564154890644522E-016
   7.2300000000000004          3.8870866445252186E-016
   7.2800000000000002          1.6704760785156716E-016
   7.3300000000000001         -7.3588194764923797E-017
   7.3799999999999999         -3.2670682033193799E-016
   7.4300000000000006         -5.8525958253479295E-016
   7.4800000000000004         -8.4183886865776943E-016
   7.5300000000000002         -1.0888909339969668E-015
   7.5800000000000001         -1.3189441450401311E-015
   7.6299999999999999         -1.5248468766766267E-015
   7.6800000000000006         -1.7000013621779193E-015
   7.7300000000000004         -1.8385777286066441E-015
   7.7800000000000002         -1.9356965140285790E-015
   7.8300000000000001         -1.9875788547804932E-015
   7.8799999999999999         -1.9916716930100139E-015
   7.9300000000000006         -1.9467531401412832E-015
   7.9799999999999995         -1.8530165262787890E-015
   8.0300000000000011         -1.7121186934423262E-015
   8.0800000000000018         -1.5271805866955066E-015
   8.1300000000000008         -1.3027304951635907E-015
   8.1800000000000015         -1.0445943955989603E-015
   8.2300000000000004         -7.5974361061116401E-016
   8.2800000000000011         -4.5611193002780703E-016
   8.3300000000000018         -1.4238795584504521E-016
   8.3800000000000008          1.7221696078399548E-016
   8.4300000000000015          4.7822389279744316E-016
   8.4800000000000004          7.6615943533019401E-016
   8.5300000000000011          1.0268385322576795E-015
   8.5800000000000018          1.2516478739754895E-015
   8.6300000000000008          1.4328253641130055E-015
   8.6800000000000015          1.5637311204997857E-015
   8.7300000000000004          1.6390997176249562E-015
   8.7800000000000011          1.6552571689244873E-015
   8.8300000000000018          1.6102805528547398E-015
   8.8800000000000008          1.5040864667747655E-015
   8.9300000000000015          1.3384481263641571E-015
   8.9800000000000004          1.1169552856286783E-015
   9.0300000000000011          8.4493468241030755E-016
   9.0800000000000018          5.2933591411588590E-016
   9.1300000000000008          1.7857441496904648E-016
   9.1800000000000015         -1.9768622008336490E-016
   9.2300000000000004         -5.8882218237833465E-016
   9.2800000000000011         -9.8359781471902692E-016
   9.3300000000000018         -1.3705466876145422E-015
   9.3800000000000008         -1.7383515055298219E-015
   9.4300000000000015         -2.0762007566815572E-015
   9.4800000000000022         -2.3741134087621412E-015
   9.5300000000000011         -2.6232360375185658E-015
   9.5800000000000018         -2.8161158609889729E-015
   9.6300000000000008         -2.9469417315756572E-015
   9.6800000000000015         -3.0117395756068017E-015
   9.7300000000000022         -3.0085121637332433E-015
   9.7800000000000011         -2.9373126126107114E-015
   9.8300000000000018         -2.8002527747124996E-015
   9.8800000000000008         -2.6014464626147721E-015
   9.9300000000000015         -2.3468855679741178E-015
   9.9800000000000022         -2.0442466983747496E-015
   10.030000000000001         -1.7026379579424192E-015
   10.080000000000002         -1.3323049880799909E-015
   10.130000000000001         -9.4432079514678885E-016
   10.180000000000001         -5.5027632660722778E-016
   10.230000000000002         -1.6197219363262642E-016
   10.280000000000001          2.0890085671914021E-016
   10.330000000000002          5.5110207129349221E-016
   10.380000000000001          8.5419440734981052E-016
   10.430000000000001          1.1088838289350763E-015
   10.480000000000002          1.3073084853924206E-015
   10.530000000000001          1.4432570008882123E-015
   10.580000000000002          1.5123161419277922E-015
   10.630000000000001          1.5119686465736695E-015
   10.680000000000001          1.4416592306000697E-015
   10.730000000000002          1.3028303635367901E-015
   10.780000000000001          1.0989133534459094E-015
   10.830000000000002          8.3525120492746512E-016
   10.880000000000001          5.1894389416435816E-016
   10.930000000000001          1.5862535798909235E-016
   10.980000000000002         -2.3580914692645566E-016
   11.030000000000001         -6.5350675221375801E-016
   11.080000000000002         -1.0829831907079588E-015
   11.130000000000001         -1.5124701846768028E-015
   11.180000000000001         -1.9302781455242768E-015
   11.230000000000002         -2.3251591735235741E-015
   11.280000000000001         -2.6866504788777983E-015
   11.330000000000002         -3.0053832799811519E-015
   11.380000000000001         -3.2733562700603840E-015
   11.430000000000001         -3.4841751160768297E-015
   11.480000000000002         -3.6332567033733664E-015
   11.530000000000001         -3.7179794326953001E-015
   11.580000000000002         -3.7377556626675862E-015
   11.630000000000001         -3.6940076545991726E-015
   11.680000000000001         -3.5900550920013905E-015
   11.730000000000002         -3.4309383220335154E-015
   11.780000000000001         -3.2232096280333373E-015
   11.830000000000002         -2.9747107642198414E-015
   11.880000000000001         -2.6943278394215044E-015
   11.930000000000001         -2.3917082257868007E-015
   11.980000000000002         -2.0769298689533634E-015
   12.030000000000001         -1.7601423053201841E-015
   12.080000000000002         -1.4512169341165534E-015
   12.130000000000001         -1.1594376674958178E-015
   12.180000000000001         -8.9325225110156602E-016
   12.230000000000002         -6.6007461293678563E-016
   12.280000000000001         -4.6612602115887017E-016
   12.330000000000002         -3.1630887401601121E-016
   12.380000000000001         -2.1412273547207913E-016
   12.430000000000001         -1.6163608436372759E-016
   12.480000000000002         -1.5951790401718054E-016
   12.530000000000001         -2.0711598947373988E-016
   12.580000000000002         -3.0256126741934311E-016
   12.630000000000001         -4.4288724131506474E-016
   12.680000000000001         -6.2416655418761297E-016
   12.730000000000002         -8.4167784142109811E-016
   12.780000000000001         -1.0901031123889691E-015
   12.830000000000002         -1.3637399259804566E-015
   12.880000000000001         -1.6566971355913183E-015
   12.930000000000001         -1.9630495708657041E-015
   12.980000000000002         -2.2769525144354686E-015
   13.030000000000001         -2.5927350918627488E-015
   13.080000000000002         -2.9049987007866954E-015
   13.130000000000001         -3.2087266301515301E-015
   13.180000000000001         -3.4993926096618546E-015
   13.230000000000002         -3.7730419855119651E-015
   13.280000000000001         -4.0263330838299555E-015
   13.330000000000002         -4.2565451117118292E-015
   13.380000000000001         -4.4615713867482082E-015
   13.430000000000001         -4.6399125416917182E-015
   13.480000000000002         -4.7906656449518465E-015
   13.530000000000001         -4.9134965448946600E-015
   13.580000000000002         -5.0085884276753396E-015
   13.630000000000001         -5.0765719496253376E-015
   13.680000000000001         -5.1184649021399886E-015
   13.730000000000002         -5.1356368924464033E-015
   13.780000000000001         -5.1297935590508854E-015
   13.830000000000002         -5.1029578337421991E-015
   13.880000000000001         -5.0574211912243443E-015
   13.930000000000001         -4.9956622644522363E-015
   13.980000000000002         -4.9202637164776037E-015
   14.030000000000001         -4.8338582924753914E-015
   14.080000000000002         -4.7391355886525758E-015
   14.130000000000001         -4.6388939535176862E-015
   14.180000000000001         -4.5361057649029632E-015
   14.230000000000002         -4.4339610202705231E-015
   14.280000000000001         -4.3358713757499485E-015
   14.330000000000002         -4.2454498658188680E-015
   14.380000000000001         -4.1664818458119819E-015
   14.430000000000001         -4.1029053336798944E-015
   14.480000000000002         -4.0587908643337467E-015
   14.530000000000001         -4.0383116872857509E-015
   14.580000000000002         -4.0456942711301881E-015
   14.630000000000001         -4.0851495048623554E-015
   14.680000000000001         -4.1607833003877842E-015
   14.730000000000002         -4.2764834326238695E-015
   14.780000000000001         -4.4357639321510716E-015
   14.830000000000002         -4.6415611134959620E-015
   14.880000000000001         -4.8959984895731144E-015
   14.930000000000001         -5.2001598544948124E-015
   14.980000000000002         -5.5539231661636388E-015
   15.030000000000001         -5.9558764926172211E-015
   15.080000000000002         -6.4033060104289031E-015
   15.130000000000001         -6.8922167030155261E-015
   15.180000000000001         -7.4173512922563476E-015
   15.230000000000002         -7.9722065329490146E-015
   15.280000000000001         -8.5490804398953690E-015
   15.330000000000002         -9.1392048832257065E-015
   15.380000000000001         -9.7329887749391653E-015
   15.430000000000001         -1.0320361602881865E-014
   15.480000000000002         -1.0891176758431438E-014
   15.530000000000001         -1.1435619523378418E-014
   15.580000000000002         -1.1944584406128025E-014
   15.630000000000001         -1.2410018827903358E-014
   15.680000000000001         -1.2825222702411613E-014
   15.730000000000002         -1.3185113737469054E-014
   15.780000000000001         -1.3486450618775025E-014
   15.830000000000002         -1.3728005284808607E-014
   15.880000000000001         -1.3910684005168722E-014
   15.930000000000001         -1.4037595124428451E-014
   15.980000000000002         -1.4114056927428578E-014
   16.030000000000001         -1.4147528983885410E-014
   16.079999999999998         -1.4147430123079426E-014
   16.129999999999999         -1.4124855190865761E-014
   16.180000000000000         -1.4092196122242743E-014
   16.230000000000000         -1.4062721360567514E-014
   16.280000000000001         -1.4050175499663671E-014
   16.329999999999998         -1.4068417516962719E-014
   16.379999999999999         -1.4131096724503456E-014
   16.430000000000000         -1.4251331277650775E-014
   16.480000000000000         -1.4441372807272526E-014
   16.530000000000001         -1.4712254031623227E-014
   16.579999999999998         -1.5073457049923935E-014
   16.629999999999999         -1.5532649713370417E-014
   16.680000000000000         -1.6095503122519872E-014
   16.730000000000000         -1.6765593917745999E-014
   16.780000000000001         -1.7544374757764701E-014
   16.829999999999998         -1.8431193351320823E-014
   16.879999999999999         -1.9423359313439055E-014
   16.930000000000000         -2.0516261829294850E-014
   16.980000000000000         -2.1703546740360270E-014
   17.030000000000001         -2.2977338843791410E-014
   17.079999999999998         -2.4328503138599005E-014
   17.129999999999999         -2.5746919863911280E-014
   17.180000000000000         -2.7221796912605718E-014
   17.230000000000000         -2.8742016009076093E-014
   17.280000000000001         -3.0296531484925421E-014
   17.329999999999998         -3.1874801717001092E-014
   17.379999999999999         -3.3467211898711003E-014
   17.430000000000000         -3.5065490211137757E-014
   17.480000000000000         -3.6663052798720781E-014
   17.530000000000001         -3.8255336313614467E-014
   17.579999999999998         -3.9840051115099408E-014
   17.629999999999999         -4.1417404598756789E-014
   17.680000000000000         -4.2990280483004817E-014
   17.730000000000000         -4.4564340752686498E-014
   17.780000000000001         -4.6148089435204187E-014
   17.829999999999998         -4.7752830134765122E-014
   17.879999999999999         -4.9392619542158226E-014
   17.930000000000000         -5.1084107556890330E-014
   17.980000000000000         -5.2846362443504172E-014
   18.030000000000001         -5.4700601078488563E-014
   18.079999999999998         -5.6669860173188391E-014
   18.129999999999999         -5.8778679150626800E-014
   18.180000000000000         -6.1052786409857485E-014
   18.230000000000000         -6.3518861679574325E-014
   18.280000000000001         -6.6204391131969509E-014
   18.329999999999998         -6.9137575011018693E-014
   18.379999999999999         -7.2347288275650314E-014
   18.430000000000000         -7.5863064823072561E-014
   18.480000000000000         -7.9715091954513738E-014
   18.530000000000001         -8.3934262901984813E-014
   18.579999999999998         -8.8552306724071229E-014
   18.629999999999999         -9.3601976285307536E-014
   18.680000000000000         -9.9117361136344927E-014
   18.730000000000000         -1.0513418065834636E-013
   18.780000000000001         -1.1169012128129886E-013
   18.829999999999998         -1.1882511890243157E-013
   18.879999999999999         -1.2658152974814205E-013
   18.930000000000000         -1.3500423169746417E-013
   18.980000000000000         -1.4414060089877089E-013
   19.030000000000001         -1.5404044121133430E-013
   19.080000000000002         -1.6475574306667958E-013
   19.129999999999999         -1.7634043788188740E-013
   19.180000000000000         -1.8884993503494156E-013
   19.230000000000000         -2.0234059235721040E-013
   19.280000000000001         -2.1686875481568927E-013
   19.330000000000002         -2.3248963182269534E-013
   19.379999999999999         -2.4925571379810517E-013
   19.430000000000000         -2.6721486452280588E-013
   19.480000000000000         -2.8640793793729724E-013
   19.530000000000001         -3.0686610555441886E-013
   19.580000000000002         -3.2860759078663421E-013
   19.629999999999999         -3.5163404386959565E-013
   19.680000000000000         -3.7592609481783227E-013
   19.730000000000000         -4.0143850467805114E-013
   19.780000000000001         -4.2809439363933779E-013
   19.830000000000002         -4.5577889431250207E-013
   19.879999999999999         -4.8433229182303887E-013
   19.930000000000000         -5.1354256439842950E-013
   19.980000000000000         -5.4313762440096633E-013
   20.030000000000001         -5.7277709906479724E-013
   20.080000000000002         -6.0204431158662841E-013
   20.129999999999999         -6.3043823064987347E-013
   20.180000000000000         -6.5736578147448466E-013
   20.230000000000000         -6.8213475457630561E-013
   20.280000000000001         -7.0394799184880735E-013
   20.330000000000002         -7.2189869481280596E-013
   20.379999999999999         -7.3496775288759781E-013
   20.430000000000000         -7.4202342283009549E-013
   20.480000000000000         -7.4182364961348234E-013
   20.530000000000001         -7.3302175950217836E-013
   20.580000000000002         -7.1417551713050530E-013
   20.629999999999999         -6.8376062444726348E-013
   20.680000000000000         -6.4018815809598760E-013
   20.730000000000000         -5.8182685903880375E-013
   20.780000000000001         -5.0703002710688771E-013
   20.830000000000002         -4.1416761594885088E-013
   20.879999999999999         -3.0166313295569735E-013
   20.930000000000000         -1.6803542272334969E-013
   20.980000000000000         -1.1944684807140933E-014
   21.030000000000001          1.6775766722842651E-013
   21.080000000000002          3.7197610026908827E-013
   21.129999999999999          6.0131597864673045E-013
   21.180000000000000          8.5602754019435478E-013
   21.230000000000000          1.1359506804662829E-012
   21.280000000000001          1.4404613874425942E-012
   21.330000000000002          1.7684216926361272E-012
   21.379999999999999          2.1181356272359564E-012
   21.430000000000000          2.4873120765086625E-012
   21.480000000000000          2.8730368555819879E-012
   21.530000000000001          3.2717565994575863E-012
   21.580000000000002          3.6792758490659589E-012
   21.629999999999999          4.0907679146477437E-012
   21.680000000000000          4.5008042757333534E-012
   21.730000000000000          4.9033983121318098E-012
   21.780000000000001          5.2920690431436735E-012
   21.830000000000002          5.6599227415689474E-012
   21.879999999999999          5.9997521642085874E-012
   21.930000000000000          6.3041525438668708E-012
   21.980000000000000          6.5656561761480834E-012
   22.030000000000001          6.7768749334365342E-012
   22.080000000000002          6.9306597386789946E-012
   22.129999999999999          7.0202647030216598E-012
   22.180000000000000          7.0395157005074194E-012
   22.230000000000000          6.9829793739600432E-012
   22.280000000000001          6.8461264612980876E-012
   22.330000000000002          6.6254876700928812E-012
   22.379999999999999          6.3187939362650260E-012
   22.430000000000000          5.9250983728453942E-012
   22.480000000000000          5.4448759670502198E-012
   22.530000000000001          4.8800959645552420E-012
   22.580000000000002          4.2342630126422027E-012
   22.629999999999999          3.5124247832245421E-012
   22.680000000000000          2.7211454968711887E-012
   22.730000000000000          1.8684434428631314E-012
   22.780000000000001          9.6369178809325544E-013
   22.830000000000002          1.7483749316380244E-014
   22.879999999999999         -9.5853281439045905E-013
   22.930000000000000         -1.9518537515895085E-012
   22.980000000000000         -2.9493394830025747E-012
   23.030000000000001         -3.9374588046543981E-012
   23.080000000000002         -4.9025459415331901E-012
   23.129999999999999         -5.8310662626706338E-012
   23.180000000000000         -6.7098854105611048E-012
   23.230000000000000         -7.5265317943891839E-012
   23.280000000000001         -8.2694473816447978E-012
   23.330000000000002         -8.9282201253517095E-012
   23.379999999999999         -9.4937927120727265E-012
   23.430000000000000         -9.9586430452082984E-012
   23.480000000000000         -1.0316924261077163E-011
   23.530000000000001         -1.0564576338956409E-011
   23.580000000000002         -1.0699388925527138E-011
   23.629999999999999         -1.0721028603879781E-011
   23.680000000000000         -1.0631014908733794E-011
   23.730000000000000         -1.0432665013503086E-011
   23.780000000000001         -1.0130993638778251E-011
   23.830000000000002         -9.7325811181146806E-012
   23.879999999999999         -9.2454083664652798E-012
   23.930000000000000         -8.6786659964178652E-012
   23.980000000000000         -8.0425381710564935E-012
   24.030000000000001         -7.3479758650468568E-012
   24.080000000000002         -6.6064607233313458E-012
   24.129999999999999         -5.8297618176701763E-012
   24.180000000000000         -5.0297002983783835E-012
   24.230000000000000         -4.2179257502528571E-012
   24.280000000000001         -3.4056997023683596E-012
   24.330000000000002         -2.6037028434710823E-012
   24.379999999999999         -1.8218627044400543E-012
   24.430000000000000         -1.0692082605367674E-012
   24.480000000000000         -3.5375268879278931E-013
   24.530000000000001          3.1759616915801854E-013
   24.580000000000002          9.3909386968133853E-013
   24.629999999999999          1.5061894936200648E-012
   24.680000000000000          2.0155271884396497E-012
   24.730000000000000          2.4649215160239575E-012
   24.780000000000001          2.8533093020766701E-012
   24.830000000000002          3.1806812491723550E-012
   24.879999999999999          3.4479961414969864E-012
   24.930000000000000          3.6570820991253874E-012
   24.980000000000000          3.8105250900652687E-012
   25.030000000000001          3.9115545496407613E-012
   25.080000000000002          3.9639223774391376E-012
   25.129999999999999          3.9717818623262777E-012
   25.180000000000000          3.9395714234958257E-012
   25.230000000000000          3.8719030062671333E-012
   25.280000000000001          3.7734583580034965E-012
   25.330000000000002          3.6488940084280864E-012
   25.379999999999999          3.5027586108683288E-012
   25.430000000000000          3.3394201646687181E-012
   25.480000000000000          3.1630049002651192E-012
   25.530000000000001          2.9773498504236283E-012
   25.580000000000002          2.7859658545040252E-012
   25.629999999999999          2.5920133549827291E-012
   25.680000000000000          2.3982878969446500E-012
   25.730000000000000          2.2072162450296795E-012
   25.780000000000001          2.0208592645426170E-012
   25.830000000000002          1.8409231733707353E-012
   25.879999999999999          1.6687770293479044E-012
   25.930000000000000          1.5054739984363131E-012
   25.980000000000000          1.3517779391516605E-012
   26.030000000000001          1.2081908251851693E-012
   26.080000000000002          1.0749824804606511E-012
   26.129999999999999          9.5222066193441862E-013
   26.180000000000000          8.3980080322926381E-013
   26.230000000000000          7.3747511888989653E-013
   26.280000000000001          6.4487990035081032E-013
   26.330000000000002          5.6156138865586230E-013
   26.379999999999999          4.8699868700553410E-013
   26.430000000000000          4.2062437144497865E-013
   26.480000000000000          3.6184280830107552E-013
   26.530000000000001          3.1004585878118889E-013
   26.580000000000002          2.6462630513045526E-013
   26.629999999999999          2.2498904262006218E-013
   26.680000000000000          1.9055968934909670E-013
   26.730000000000000          1.6079099917281660E-013
   26.780000000000001          1.3516747926109387E-013
   26.830000000000002          1.1320867821891491E-013
   26.879999999999999          9.4471347599834879E-014
   26.930000000000000          7.8550417441938532E-014
   26.980000000000000          6.5078951842171246E-014
   27.030000000000001          5.3727101901353871E-014
   27.080000000000002          4.4200236369869135E-014